LAMMPS dislocMMC optimisation
 
      408 atoms
          0 bonds
          0 angles
          0 dihedrals
          0 impropers
 
          1 atom types
          0 bond types
          0 angle types
          0 dihedral types
          0 improper types
 
0 36.675   xlo xhi
0 29.625   ylo yhi
0 12.6   zlo zhi
 
 Masses
 
          1   12.0000
 
 Atoms
 
1    1 35.0048 15.774 3.37388
2    1 5.55215 15.8966 3.83492
3    1 21.0613 16.8545 3.112
4    1 34.9287 18.5902 3.26692
5    1 5.45563 18.7179 3.69852
6    1 34.8959 19.9926 3.2124
7    1 5.47895 20.1082 3.54516
8    1 21.214 19.9497 3.12216
9    1 21.2919 21.4618 3.13268
10    1 34.8608 22.7834 3.13944
11    1 5.51845 22.9012 3.26956
12    1 34.8677 24.1902 3.13372
13    1 5.55762 24.2981 3.19084
14    1 21.3494 24.4923 3.16524
15    1 21.4783 0.985932 3.23904
16    1 21.3985 25.972 3.18388
17    1 5.68649 1.86649 3.12952
18    1 34.9508 1.75013 3.19952
19    1 34.8789 26.9857 3.155
20    1 5.60684 27.0859 3.11272
21    1 23.6226 16.853 3.03196
22    1 22.3524 17.6431 3.07592
23    1 22.4593 19.195 3.07816
24    1 23.6831 20.0478 3.04024
25    1 23.742 21.5408 3.04604
26    1 22.5062 22.2617 3.09844
27    1 22.567 23.7467 3.1138
28    1 23.7736 24.5393 3.08172
29    1 23.9035 0.959527 3.20944
30    1 23.8268 26.0008 3.10936
31    1 22.7003 1.72123 3.23328
32    1 22.6103 26.7384 3.16244
33    1 26.4822 15.9714 2.83716
34    1 26.2966 17.3645 2.90812
35    1 24.9598 17.8877 2.98096
36    1 24.9508 19.3765 2.99616
37    1 26.1703 20.246 2.96868
38    1 26.1983 21.6934 2.97456
39    1 24.9491 22.3696 3.0112
40    1 25.0033 23.8271 3.027
41    1 26.2129 24.621 3.00912
42    1 26.3391 0.956491 3.17644
43    1 26.2626 26.0607 3.0424
44    1 25.1257 1.69226 3.20724
45    1 25.0368 26.7735 3.09244
46    1 27.8576 15.5963 2.73964
47    1 29.0006 16.3345 2.7962
48    1 28.8486 17.7024 2.88184
49    1 27.5155 18.2211 2.90712
50    1 27.4578 19.6417 2.94328
51    1 28.6835 20.4351 2.95804
52    1 28.6759 21.8553 2.96588
53    1 27.4147 22.5019 2.96484
54    1 27.452 23.9344 2.97968
55    1 28.6715 24.7077 2.99508
56    1 28.7865 0.9728 3.15124
57    1 28.7117 26.1323 3.02652
58    1 27.5632 1.68475 3.18132
59    1 27.4783 26.8258 3.04772
60    1 30.2256 15.6712 2.85088
61    1 0.734465 15.8125 3.5772
62    1 31.3953 16.4106 2.98116
63    1 1.92696 16.5417 3.63116
64    1 31.3023 17.8071 3.00664
65    1 1.88173 17.9432 3.5472
66    1 30.0417 18.4448 2.95408
67    1 0.669693 18.633 3.42212
68    1 29.972 19.84 2.98004
69    1 0.653868 20.0339 3.32792
70    1 31.1878 20.5752 3.02884
71    1 1.85764 20.7573 3.32956
72    1 31.1654 21.9824 3.02756
73    1 1.86905 22.1577 3.23892
74    1 29.9021 22.6203 2.99348
75    1 0.640984 22.8354 3.18584
76    1 29.9187 24.039 3.00584
77    1 0.656237 24.2397 3.15508
78    1 31.146 24.7857 3.0474
79    1 1.88091 24.9549 3.14564
80    1 1.98322 1.11739 3.18608
81    1 31.2454 1.00077 3.15132
82    1 31.1747 26.2015 3.07076
83    1 1.90959 26.3596 3.13568
84    1 0.747616 1.79163 3.21124
85    1 30.0158 1.69469 3.16596
86    1 29.9357 26.8813 3.05832
87    1 0.674923 27.0329 3.15136
88    1 32.6103 15.7295 3.11448
89    1 3.14329 15.8507 3.7282
90    1 33.7919 16.4624 3.23212
91    1 4.33172 16.583 3.77148
92    1 33.731 17.8641 3.19924
93    1 4.27667 17.9823 3.69216
94    1 32.498 18.5349 3.09828
95    1 3.07248 18.6736 3.56456
96    1 32.4466 19.9358 3.08748
97    1 3.07258 20.0711 3.4382
98    1 33.6578 20.6577 3.13592
99    1 4.27234 20.7962 3.4212
100    1 33.6405 22.0627 3.11256
101    1 4.30187 22.1911 3.29592
102    1 32.3896 22.7148 3.06956
103    1 3.08299 22.8758 3.22308
104    1 32.395 24.1254 3.07684
105    1 3.11013 24.2769 3.16336
106    1 33.6236 24.8534 3.11508
107    1 4.33597 24.9851 3.14976
108    1 4.45224 1.15051 3.1422
109    1 33.7142 1.03538 3.17648
110    1 33.6464 26.2636 3.13104
111    1 4.37056 26.3882 3.12064
112    1 3.21948 1.83246 3.1868
113    1 32.4804 1.71658 3.17436
114    1 32.4053 26.9347 3.11276
115    1 3.14125 27.0703 3.12228
116    1 5.72636 3.281 3.1684
117    1 34.9899 3.15722 3.22976
118    1 34.9123 28.3946 3.16868
119    1 5.64259 28.4947 3.09956
120    1 21.5357 3.9629 3.24464
121    1 21.4476 28.9633 3.22336
122    1 21.5586 5.42835 3.2334
123    1 5.7586 6.11072 3.27376
124    1 35.0252 5.94878 3.33704
125    1 5.78768 7.52612 3.33252
126    1 35.055 7.35202 3.40152
127    1 21.6469 8.42016 3.18884
128    1 21.6901 9.9027 3.16336
129    1 5.77184 10.3278 3.48996
130    1 35.0649 10.1491 3.48504
131    1 5.75174 11.7325 3.59248
132    1 35.0764 11.5523 3.48456
133    1 21.8842 12.9514 3.11692
134    1 22.052 14.4882 3.0984
135    1 5.64296 14.4988 3.78924
136    1 35.0497 14.3715 3.42112
137    1 22.7271 3.17707 3.23912
138    1 22.6523 28.2021 3.18948
139    1 23.956 3.89373 3.2294
140    1 23.8678 28.9539 3.17964
141    1 23.9767 5.33826 3.21664
142    1 22.793 6.13439 3.21272
143    1 22.8145 7.59169 3.18756
144    1 24.0588 8.26667 3.162
145    1 24.0854 9.70998 3.12752
146    1 22.945 10.5786 3.12776
147    1 23.0166 12.0679 3.09816
148    1 24.2931 12.6931 3.04136
149    1 24.4368 14.1974 2.99608
150    1 23.3654 15.1715 3.04652
151    1 25.1555 3.12954 3.223
152    1 25.0829 28.2181 3.13388
153    1 26.3853 3.84017 3.22092
154    1 26.2994 28.9681 3.13448
155    1 26.4111 5.26568 3.2192
156    1 25.2139 6.02934 3.20512
157    1 25.2335 7.45943 3.17756
158    1 26.48 8.11859 3.16756
159    1 26.5106 9.53149 3.11548
160    1 25.3392 10.3376 3.09192
161    1 25.3865 11.7544 3.02708
162    1 26.6532 12.2969 2.92696
163    1 26.7267 13.6563 2.81872
164    1 25.742 14.6903 2.88116
165    1 27.5985 3.10743 3.20952
166    1 27.5232 28.2546 3.09288
167    1 28.8303 3.81468 3.21856
168    1 28.7457 28.9962 3.10908
169    1 28.8647 5.22911 3.23852
170    1 27.6495 5.95187 3.22484
171    1 27.6792 7.36624 3.20636
172    1 28.9259 8.02947 3.22244
173    1 28.969 9.43021 3.16728
174    1 27.7695 10.1536 3.085
175    1 27.8271 11.5418 2.96728
176    1 29.0747 12.1692 2.92772
177    1 29.1405 13.5401 2.7982
178    1 27.9744 14.2246 2.72584
179    1 0.786484 3.19903 3.24856
180    1 30.0542 3.10879 3.20196
181    1 29.9761 28.3 3.09312
182    1 0.70906 28.4394 3.1646
183    1 2.02164 3.91691 3.27072
184    1 31.2902 3.81344 3.22304
185    1 31.2055 29.0305 3.12336
186    1 1.94419 29.1538 3.15848
187    1 2.05538 5.32515 3.32424
188    1 31.3277 5.22083 3.26512
189    1 0.816059 5.99427 3.35336
190    1 30.1038 5.91671 3.2634
191    1 0.8408 7.39998 3.41952
192    1 30.1409 7.32246 3.27508
193    1 2.06683 8.12066 3.44956
194    1 31.378 8.00535 3.3188
195    1 2.07508 9.52634 3.5198
196    1 31.4186 9.40291 3.29692
197    1 0.835328 10.1926 3.54752
198    1 30.2105 10.0923 3.18648
199    1 0.830656 11.5971 3.59384
200    1 30.2648 11.4783 3.0764
201    1 2.0387 12.3183 3.64532
202    1 31.4647 12.1979 3.12692
203    1 2.00529 13.7223 3.67856
204    1 31.4923 13.5922 3.03428
205    1 0.781724 14.4089 3.6132
206    1 30.3032 14.278 2.86288
207    1 3.25835 3.24217 3.23268
208    1 32.5199 3.12586 3.20788
209    1 32.4409 28.3478 3.13304
210    1 3.17744 28.4764 3.12816
211    1 4.4925 3.96428 3.233
212    1 33.7563 3.83364 3.23864
213    1 33.6751 29.0693 3.16068
214    1 4.4134 29.1845 3.11764
215    1 4.52845 5.37703 3.28736
216    1 33.7937 5.23809 3.29288
217    1 3.28756 6.04783 3.34128
218    1 32.5642 5.91783 3.3052
219    1 3.31094 7.45766 3.4018
220    1 32.5999 7.3199 3.35148
221    1 4.53978 8.18626 3.408
222    1 33.8251 8.02788 3.40304
223    1 4.54656 9.59562 3.48432
224    1 33.853 9.42956 3.42748
225    1 3.29551 10.2478 3.54732
226    1 32.6341 10.1133 3.35032
227    1 3.27931 11.6517 3.6272
228    1 32.6661 11.5115 3.29224
229    1 4.4928 12.3725 3.664
230    1 33.8617 12.2384 3.3732
231    1 4.44237 13.7725 3.7448
232    1 33.8638 13.6402 3.32088
233    1 3.20531 14.4475 3.73468
234    1 32.6642 14.3294 3.15172
235    1 36.1954 16.5037 3.45352
236    1 6.72968 16.6351 3.87368
237    1 36.1489 17.906 3.38412
238    1 6.65035 18.0302 3.81968
239    1 19.8366 17.6565 3.14092
240    1 19.9656 19.1717 3.14804
241    1 36.1039 20.7134 3.23748
242    1 6.67984 20.8253 3.5014
243    1 36.0995 22.1167 3.18288
244    1 6.72902 22.2093 3.3524
245    1 20.0744 22.2267 3.175
246    1 20.1337 23.7228 3.1896
247    1 36.0945 24.9096 3.14704
248    1 6.79485 24.9824 3.18268
249    1 6.91507 1.17022 3.08768
250    1 36.1863 1.07598 3.1978
251    1 36.1181 26.3164 3.15328
252    1 6.83046 26.3886 3.138
253    1 20.283 1.76618 3.2494
254    1 20.1941 26.7397 3.21872
255    1 7.95569 15.9669 3.85964
256    1 9.09973 16.7051 3.8396
257    1 8.98226 18.0771 3.82668
258    1 7.81511 18.7653 3.79012
259    1 7.87372 20.1329 3.61072
260    1 9.11678 20.7588 3.50448
261    1 9.1689 22.1467 3.3702
262    1 7.96933 22.8725 3.3148
263    1 8.00978 24.2732 3.23484
264    1 9.25563 24.9375 3.22284
265    1 9.36628 1.17686 3.05316
266    1 9.28318 26.3514 3.17532
267    1 8.14394 1.89173 3.06576
268    1 8.06927 27.0764 3.13512
269    1 10.4671 16.3282 3.6538
270    1 11.2039 17.6111 3.56088
271    1 10.2225 18.6435 3.65364
272    1 10.2902 19.9998 3.5166
273    1 11.5523 20.5427 3.377
274    1 11.5968 21.9598 3.31404
275    1 10.4262 22.7681 3.30992
276    1 10.453 24.1819 3.25704
277    1 11.6997 24.8405 3.24104
278    1 11.8032 1.16452 3.0622
279    1 11.7169 26.2709 3.2034
280    1 10.5908 1.90374 3.03432
281    1 10.5215 27.0371 3.16668
282    1 13.5684 17.1239 3.3004
283    1 12.5039 18.0966 3.38768
284    1 12.6436 19.6043 3.342
285    1 13.9192 20.2249 3.27764
286    1 13.9894 21.7155 3.26608
287    1 12.85 22.5868 3.27484
288    1 12.8734 24.0303 3.25504
289    1 14.118 24.7036 3.2432
290    1 14.2273 1.13015 3.12196
291    1 14.1367 26.1611 3.22172
292    1 13.0264 1.89488 3.06796
293    1 12.9547 26.9597 3.19376
294    1 16.0591 16.9641 3.19964
295    1 14.8845 17.8034 3.24016
296    1 15.0499 19.3405 3.24304
297    1 16.3158 20.0415 3.21996
298    1 16.4075 21.5488 3.22944
299    1 15.2449 22.3893 3.24756
300    1 15.284 23.8723 3.24592
301    1 16.5243 24.5779 3.24008
302    1 16.644 1.08194 3.20004
303    1 16.5532 26.0579 3.23668
304    1 15.4502 1.86358 3.15196
305    1 15.3719 26.8644 3.22128
306    1 18.5524 16.8991 3.15876
307    1 17.3448 17.7057 3.18184
308    1 17.496 19.2191 3.19224
309    1 18.7521 19.9624 3.17888
310    1 18.8432 21.4687 3.19232
311    1 17.6518 22.2708 3.21888
312    1 17.7046 23.7663 3.22924
313    1 18.9339 24.5044 3.2198
314    1 19.0597 1.03013 3.24352
315    1 18.9736 25.9913 3.22896
316    1 17.8673 1.81722 3.22632
317    1 17.7828 26.7841 3.23696
318    1 20.3086 3.23704 3.25096
319    1 20.2284 28.2167 3.23104
320    1 6.95512 4.01175 3.14336
321    1 36.2251 3.87162 3.26244
322    1 36.1479 29.1123 3.1798
323    1 6.87796 29.1991 3.08832
324    1 6.99561 5.43106 3.18908
325    1 36.26 5.27698 3.31656
326    1 20.3758 6.23279 3.2332
327    1 20.4075 7.71303 3.21484
328    1 7.01479 8.27323 3.31
329    1 36.2786 8.06848 3.44688
330    1 7.0328 9.69052 3.38936
331    1 36.2946 9.47214 3.50372
332    1 20.526 10.7415 3.17056
333    1 20.6185 12.2476 3.15044
334    1 6.96961 12.4661 3.60436
335    1 36.278 12.2771 3.55256
336    1 6.90414 13.858 3.7278
337    1 36.2618 13.6814 3.54124
338    1 20.8743 15.3263 3.12064
339    1 8.18377 3.31366 3.0778
340    1 8.10136 28.4913 3.09788
341    1 9.40596 4.05467 3.04648
342    1 9.33327 29.1975 3.08428
343    1 9.44953 5.48486 3.07184
344    1 8.21858 6.18009 3.15332
345    1 8.25873 7.60444 3.20828
346    1 9.47722 8.37723 3.17476
347    1 9.51562 9.80906 3.2472
348    1 8.25881 10.4548 3.36996
349    1 8.25481 11.8727 3.47988
350    1 9.48122 12.6644 3.45928
351    1 9.42896 14.0809 3.59092
352    1 8.10121 14.5991 3.74268
353    1 10.6289 3.33771 3.01832
354    1 10.545 28.4623 3.11708
355    1 11.8466 4.08547 3.01424
356    1 11.7758 29.1707 3.10712
357    1 11.891 5.53188 3.0192
358    1 10.6656 6.24799 3.04752
359    1 10.7141 7.68892 3.088
360    1 11.9248 8.47911 3.08112
361    1 11.9788 9.93732 3.132
362    1 10.7319 10.6157 3.221
363    1 10.7626 12.0615 3.30916
364    1 11.9829 12.9276 3.2764
365    1 11.9774 14.4158 3.3624
366    1 10.6487 14.9361 3.54056
367    1 13.0608 3.3454 3.04344
368    1 12.9733 28.4038 3.15196
369    1 14.2775 4.09513 3.07748
370    1 14.2026 29.1179 3.15616
371    1 14.3188 5.55926 3.07372
372    1 13.1028 6.30081 3.03872
373    1 13.1543 7.76282 3.0594
374    1 14.3633 8.55124 3.09372
375    1 14.4238 10.0363 3.11624
376    1 13.1883 10.7616 3.13468
377    1 13.2477 12.2543 3.1852
378    1 14.4734 13.1015 3.18148
379    1 14.5802 14.649 3.21588
380    1 13.3116 15.4402 3.29468
381    1 15.4803 3.33056 3.1362
382    1 15.3927 28.33 3.19852
383    1 16.6996 4.07537 3.18156
384    1 16.6197 29.0546 3.21304
385    1 16.7343 5.55237 3.17732
386    1 15.5319 6.3223 3.12536
387    1 15.5798 7.80225 3.12832
388    1 16.7973 8.56873 3.16828
389    1 16.8572 10.0648 3.16552
390    1 15.6404 10.8327 3.14352
391    1 15.7182 12.3449 3.15868
392    1 16.9675 13.1198 3.1638
393    1 17.0968 14.6337 3.16768
394    1 15.8719 15.4356 3.19124
395    1 17.8942 3.29237 3.22192
396    1 17.8094 28.2622 3.23368
397    1 19.1182 4.02832 3.24264
398    1 19.0329 28.9988 3.24036
399    1 19.1466 5.50638 3.2366
400    1 17.9556 6.29913 3.21208
401    1 17.9963 7.78588 3.20284
402    1 19.2262 8.5238 3.20848
403    1 19.2822 10.0191 3.19076
404    1 18.0895 10.8213 3.17852
405    1 18.18 12.3276 3.16804
406    1 19.4371 13.0697 3.1568
407    1 19.5894 14.5817 3.1454
408    1 18.3818 15.3893 3.15688
