LAMMPS dislocMMC optimisation
 
      72 atoms
          0 bonds
          0 angles
          0 dihedrals
          0 impropers
 
          1 atom types
          0 bond types
          0 angle types
          0 dihedral types
          0 improper types
 
0 14.6749   xlo xhi
0 12.7089   ylo yhi
0 12.8   zlo zhi
 
 Masses
 
          1   12.0000
 
 Atoms
 
1    1 -0.042 4.241 3.199
2    1 -0.038 1.415 3.198
3    1 0 0 3.199
4    1 0.003 5.65 3.2
5    1 0.037 9.87 3.201
6    1 0.061 8.457 3.202
7    1 1.159 3.502 3.2
8    1 1.177 2.087 3.199
9    1 1.21 11.951 3.199
10    1 1.259 6.321 3.201
11    1 1.264 10.538 3.2
12    1 1.29 7.729 3.201
13    1 2.371 1.322 3.2
14    1 2.383 4.176 3.202
15    1 2.423 -0.082 3.199
16    1 2.48 5.592 3.202
17    1 2.497 9.806 3.2
18    1 2.547 8.39 3.2
19    1 3.528 3.379 3.203
20    1 3.577 1.99 3.202
21    1 3.652 11.913 3.199
22    1 3.711 10.507 3.199
23    1 3.764 6.241 3.202
24    1 3.805 7.673 3.2
25    1 4.738 3.992 3.206
26    1 4.806 1.291 3.203
27    1 4.854 -0.085 3.2
28    1 4.934 5.39 3.204
29    1 4.966 9.835 3.198
30    1 5.047 8.408 3.197
31    1 5.949 3.297 3.206
32    1 6.03 1.953 3.204
33    1 6.116 12.01 3.2
34    1 6.15 10.626 3.197
35    1 6.394 7.861 3.196
36    1 6.391 5.454 3.205
37    1 7.069 6.576 3.195
38    1 7.065 4.169 3.204
39    1 7.309 1.403 3.203
40    1 7.344 0.019 3.2
41    1 7.43 10.076 3.197
42    1 7.511 8.733 3.194
43    1 8.412 3.622 3.203
44    1 8.494 2.194 3.203
45    1 8.526 6.641 3.197
46    1 8.605 12.114 3.2
47    1 8.655 10.738 3.197
48    1 8.722 8.038 3.195
49    1 9.654 4.357 3.201
50    1 9.696 5.789 3.198
51    1 9.748 1.523 3.201
52    1 9.808 0.117 3.2
53    1 9.885 10.04 3.198
54    1 9.933 8.651 3.197
55    1 10.911 3.64 3.2
56    1 10.962 2.224 3.201
57    1 10.98 6.438 3.198
58    1 11.037 12.112 3.2
59    1 11.078 7.854 3.198
60    1 11.091 10.708 3.199
61    1 12.167 4.301 3.199
62    1 12.194 1.494 3.2
63    1 12.2 5.708 3.199
64    1 12.247 0.082 3.2
65    1 12.288 9.945 3.2
66    1 12.302 8.528 3.2
67    1 13.395 3.573 3.199
68    1 13.421 2.162 3.199
69    1 13.457 6.375 3.2
70    1 13.458 12.037 3.2
71    1 13.503 10.622 3.201
72    1 13.5 7.784 3.201
