ITEM: TIMESTEP
53
ITEM: NUMBER OF ATOMS
408
ITEM: BOX BOUNDS pp pp pp
0 36.675
0 29.625
0 12.6
ITEM: ATOMS id type xs ys zs
17 1 0.15494 0.0602349 0.248699
80 1 0.0540668 0.0346132 0.251991
84 1 0.0203816 0.0576247 0.254116
108 1 0.121347 0.035772 0.249447
112 1 0.0877212 0.0590238 0.252023
116 1 0.156036 0.108155 0.250738
123 1 0.156865 0.204338 0.258033
179 1 0.0214502 0.105296 0.257397
183 1 0.0550755 0.129799 0.258353
187 1 0.0560235 0.177498 0.262703
189 1 0.02225 0.200326 0.266059
191 1 0.0229586 0.247944 0.270998
207 1 0.088794 0.106786 0.254941
211 1 0.12238 0.131453 0.254668
215 1 0.123378 0.179305 0.258635
217 1 0.0895638 0.202177 0.263459
219 1 0.0902586 0.249912 0.268809
249 1 0.188449 0.0365329 0.246694
265 1 0.255265 0.036816 0.245274
267 1 0.22193 0.0611332 0.245752
278 1 0.321723 0.0364281 0.246199
280 1 0.288653 0.0615527 0.24487
320 1 0.189498 0.133088 0.249657
324 1 0.19061 0.181177 0.252674
339 1 0.223034 0.109332 0.246501
341 1 0.256348 0.134553 0.245549
343 1 0.257558 0.183041 0.247232
344 1 0.223942 0.206684 0.251426
353 1 0.289716 0.110195 0.244458
355 1 0.322919 0.135626 0.244611
357 1 0.324154 0.184693 0.245071
358 1 0.290708 0.208993 0.246576
290 1 0.387871 0.035333 0.249405
292 1 0.355082 0.0612771 0.246864
302 1 0.453837 0.0337693 0.253316
304 1 0.421234 0.0602673 0.25088
316 1 0.487212 0.0587524 0.254554
367 1 0.356047 0.110514 0.245899
369 1 0.38924 0.135987 0.247362
371 1 0.390384 0.185693 0.247072
372 1 0.357198 0.210843 0.245887
381 1 0.422085 0.110068 0.249972
383 1 0.455361 0.135375 0.251813
385 1 0.456333 0.185527 0.251219
386 1 0.423495 0.211615 0.248931
395 1 0.487976 0.108841 0.254017
400 1 0.489655 0.210889 0.252725
15 1 0.58575 0.0305707 0.255163
29 1 0.651915 0.0295937 0.252994
31 1 0.619114 0.0555137 0.254563
120 1 0.587339 0.13164 0.255456
122 1 0.587966 0.1814 0.254981
137 1 0.619837 0.104944 0.254976
139 1 0.65338 0.129251 0.2544
141 1 0.653951 0.178272 0.254216
142 1 0.621668 0.205344 0.254247
253 1 0.553136 0.0570578 0.255786
314 1 0.519759 0.0320687 0.255605
318 1 0.55385 0.107006 0.255699
326 1 0.555702 0.208697 0.254554
397 1 0.521369 0.133841 0.254972
399 1 0.522157 0.184034 0.254353
42 1 0.71835 0.0293567 0.251007
44 1 0.685272 0.0544452 0.252615
56 1 0.785084 0.0297946 0.250401
58 1 0.751744 0.0540808 0.251604
85 1 0.818583 0.0543583 0.252017
151 1 0.686087 0.103223 0.253665
153 1 0.71965 0.127343 0.25384
155 1 0.720347 0.175682 0.254187
156 1 0.687724 0.201721 0.253679
165 1 0.752704 0.102329 0.253448
167 1 0.78629 0.126389 0.254856
169 1 0.787217 0.174312 0.256206
170 1 0.754127 0.19902 0.254863
171 1 0.754894 0.246943 0.25367
180 1 0.819638 0.102279 0.25465
190 1 0.820968 0.197772 0.258465
192 1 0.821985 0.245398 0.258605
18 1 0.95303 0.0562215 0.254353
81 1 0.852105 0.0306806 0.251179
109 1 0.919358 0.0318475 0.252469
113 1 0.885722 0.0550896 0.253286
117 1 0.954111 0.103884 0.257686
124 1 0.955056 0.198816 0.265637
126 1 0.955901 0.246364 0.26952
184 1 0.853292 0.126312 0.256989
188 1 0.854332 0.174008 0.259653
208 1 0.886813 0.102827 0.256436
212 1 0.920479 0.126984 0.258969
216 1 0.921511 0.174579 0.26268
218 1 0.887997 0.197807 0.262754
220 1 0.888998 0.245316 0.264931
250 1 0.986719 0.0332116 0.253047
321 1 0.987747 0.128247 0.259702
325 1 0.988718 0.175861 0.263955
125 1 0.157714 0.252275 0.263123
129 1 0.157303 0.347581 0.275909
131 1 0.156826 0.395196 0.282931
135 1 0.153828 0.489367 0.295694
193 1 0.0563539 0.272542 0.273074
195 1 0.0566299 0.320172 0.27835
197 1 0.0228437 0.342959 0.279842
199 1 0.0227783 0.390547 0.282754
201 1 0.0556834 0.415184 0.286505
203 1 0.0547677 0.462756 0.288311
205 1 0.0214102 0.48615 0.283571
221 1 0.123704 0.274806 0.26932
223 1 0.123966 0.322541 0.275552
225 1 0.0898702 0.34483 0.28041
227 1 0.0894859 0.392408 0.285713
229 1 0.122517 0.417067 0.287913
231 1 0.121136 0.464525 0.292841
233 1 0.0874355 0.487535 0.292049
328 1 0.191122 0.277769 0.262271
330 1 0.191678 0.325786 0.268507
334 1 0.189977 0.420293 0.283336
336 1 0.188207 0.4675 0.291311
345 1 0.225059 0.254968 0.255521
346 1 0.258276 0.281256 0.254246
347 1 0.259346 0.32982 0.259304
348 1 0.225047 0.351872 0.267429
349 1 0.225013 0.399937 0.274766
350 1 0.258367 0.427007 0.273178
351 1 0.257018 0.475092 0.281665
352 1 0.220788 0.492819 0.29223
359 1 0.292052 0.257863 0.249184
360 1 0.32506 0.284747 0.248866
361 1 0.326536 0.334242 0.25207
362 1 0.292487 0.357277 0.257806
363 1 0.293352 0.406357 0.263372
364 1 0.326583 0.435827 0.260982
365 1 0.326477 0.486359 0.266214
373 1 0.358624 0.260468 0.247065
374 1 0.391597 0.287266 0.248189
375 1 0.393242 0.337699 0.249668
376 1 0.35951 0.362248 0.25176
377 1 0.361146 0.412974 0.254932
378 1 0.394567 0.441776 0.25406
379 1 0.397577 0.494686 0.256173
387 1 0.424821 0.261869 0.249024
388 1 0.458035 0.287913 0.250534
389 1 0.459658 0.338751 0.250605
390 1 0.426434 0.364743 0.250423
391 1 0.428552 0.416159 0.25168
392 1 0.462626 0.442505 0.251399
393 1 0.466167 0.494046 0.251952
401 1 0.490772 0.261378 0.252114
404 1 0.493271 0.364438 0.251105
405 1 0.495721 0.415654 0.250857
127 1 0.590386 0.282929 0.252845
128 1 0.591512 0.333269 0.251346
133 1 0.596799 0.436732 0.247963
134 1 0.601317 0.489185 0.246434
143 1 0.622235 0.254813 0.253127
144 1 0.656208 0.277705 0.251745
145 1 0.656906 0.326686 0.249391
146 1 0.625778 0.356156 0.24936
147 1 0.627669 0.406728 0.246933
148 1 0.662504 0.427901 0.242217
149 1 0.666314 0.479122 0.238649
327 1 0.556552 0.258953 0.253592
332 1 0.559765 0.361718 0.251159
333 1 0.562239 0.412927 0.249927
402 1 0.524319 0.286437 0.252673
403 1 0.525801 0.337244 0.25179
406 1 0.530023 0.440844 0.250171
407 1 0.534148 0.492329 0.249591
157 1 0.688236 0.250238 0.252361
158 1 0.72225 0.272657 0.251273
159 1 0.723027 0.320547 0.247271
160 1 0.691122 0.348029 0.246013
161 1 0.69236 0.396081 0.240674
162 1 0.726898 0.414606 0.232418
163 1 0.728809 0.46071 0.224605
164 1 0.701977 0.495687 0.229663
172 1 0.788878 0.269549 0.25451
173 1 0.790043 0.317011 0.250144
174 1 0.75735 0.341746 0.244238
175 1 0.758849 0.388794 0.235437
176 1 0.792839 0.410223 0.233035
177 1 0.794622 0.45676 0.22428
178 1 0.762866 0.480086 0.218402
198 1 0.823856 0.339647 0.251495
200 1 0.825308 0.386649 0.244011
206 1 0.826288 0.481778 0.230118
130 1 0.956225 0.341512 0.274047
132 1 0.956575 0.389059 0.274025
136 1 0.955782 0.484857 0.270071
194 1 0.85569 0.268734 0.261643
196 1 0.856811 0.316095 0.259572
202 1 0.85802 0.41112 0.248424
204 1 0.858734 0.458404 0.242646
222 1 0.922386 0.269475 0.268626
224 1 0.923181 0.316973 0.269591
226 1 0.889954 0.340309 0.263621
228 1 0.890828 0.387697 0.259955
230 1 0.923441 0.412453 0.266139
232 1 0.923461 0.459953 0.262969
234 1 0.890699 0.48345 0.251285
329 1 0.989238 0.270809 0.272771
331 1 0.989725 0.318381 0.276294
335 1 0.989327 0.41377 0.279271
337 1 0.988856 0.461348 0.278474
2 1 0.151291 0.536718 0.299427
5 1 0.148556 0.632536 0.293067
7 1 0.149206 0.679755 0.283352
61 1 0.0200149 0.533716 0.28109
63 1 0.0524851 0.558571 0.285046
65 1 0.0511724 0.606087 0.279881
67 1 0.0180984 0.629562 0.271085
69 1 0.017661 0.677064 0.26478
71 1 0.0504549 0.701754 0.265613
73 1 0.0508298 0.749222 0.258816
89 1 0.0856647 0.535068 0.291713
91 1 0.118022 0.560025 0.295311
93 1 0.116446 0.607489 0.291087
95 1 0.0835791 0.630979 0.282026
97 1 0.0836001 0.678403 0.273974
99 1 0.116291 0.703142 0.273772
236 1 0.183345 0.561874 0.303033
238 1 0.18116 0.60913 0.301263
242 1 0.181953 0.704217 0.280859
255 1 0.216764 0.539177 0.301098
256 1 0.247925 0.564327 0.300139
257 1 0.244714 0.610763 0.301118
258 1 0.21292 0.634174 0.300107
259 1 0.214549 0.680611 0.288477
260 1 0.24844 0.70203 0.279773
261 1 0.249811 0.749025 0.268944
269 1 0.285292 0.551535 0.286125
270 1 0.305291 0.595111 0.280104
271 1 0.278569 0.630099 0.288365
272 1 0.280366 0.676169 0.279239
273 1 0.314786 0.694673 0.267374
274 1 0.315974 0.742733 0.261974
366 1 0.290182 0.504316 0.278138
282 1 0.369896 0.578477 0.261519
283 1 0.340814 0.611662 0.267464
284 1 0.344617 0.662855 0.264086
285 1 0.379429 0.68403 0.258962
286 1 0.381295 0.734618 0.257519
294 1 0.437887 0.573231 0.254579
295 1 0.405759 0.601608 0.257265
296 1 0.410288 0.654033 0.256944
297 1 0.444836 0.677843 0.255171
298 1 0.44729 0.729056 0.255327
307 1 0.472909 0.598474 0.25293
308 1 0.477046 0.649942 0.253353
380 1 0.362964 0.521611 0.261428
394 1 0.432787 0.521271 0.254148
3 1 0.574252 0.569544 0.247238
8 1 0.578476 0.67469 0.247857
9 1 0.580583 0.726107 0.248659
21 1 0.644113 0.569195 0.241676
22 1 0.609467 0.596123 0.244742
23 1 0.612466 0.649093 0.245054
24 1 0.645866 0.677981 0.242992
25 1 0.647475 0.728706 0.243849
150 1 0.637189 0.51234 0.242607
239 1 0.540871 0.596775 0.249323
240 1 0.544421 0.64831 0.249686
306 1 0.50585 0.571111 0.25094
309 1 0.511331 0.675146 0.251992
310 1 0.513768 0.726356 0.252689
338 1 0.569174 0.517559 0.247858
408 1 0.501199 0.519708 0.250798
33 1 0.722052 0.539307 0.226945
34 1 0.717044 0.586555 0.232672
35 1 0.680611 0.60455 0.238311
36 1 0.680456 0.655131 0.239969
37 1 0.713696 0.684646 0.238554
38 1 0.714502 0.733751 0.239802
46 1 0.759634 0.526487 0.219968
47 1 0.790742 0.551623 0.224912
48 1 0.786583 0.59799 0.23103
49 1 0.750241 0.615778 0.232958
50 1 0.748778 0.663932 0.236189
51 1 0.782123 0.690978 0.237359
52 1 0.782009 0.739107 0.238617
60 1 0.824128 0.528992 0.2294
66 1 0.819086 0.62329 0.236196
68 1 0.817227 0.670557 0.238244
1 1 0.954459 0.53239 0.266816
4 1 0.952251 0.628109 0.259178
6 1 0.951366 0.675632 0.255217
62 1 0.856013 0.554138 0.238811
64 1 0.853441 0.601451 0.240065
70 1 0.850341 0.695629 0.241491
72 1 0.849809 0.743306 0.241541
88 1 0.889144 0.530897 0.248569
90 1 0.921377 0.555857 0.256715
92 1 0.919633 0.603338 0.254061
94 1 0.886036 0.62629 0.246458
96 1 0.884637 0.673749 0.245519
98 1 0.917633 0.698387 0.249099
100 1 0.917237 0.745985 0.247119
235 1 0.986891 0.557248 0.272527
237 1 0.985522 0.604772 0.267879
241 1 0.984271 0.700251 0.257572
243 1 0.984227 0.747805 0.253216
101 1 0.117141 0.750427 0.264426
11 1 0.150305 0.774642 0.262514
13 1 0.151404 0.821942 0.25544
20 1 0.152746 0.916772 0.248437
75 1 0.0173618 0.772345 0.253774
77 1 0.0178571 0.81991 0.2505
79 1 0.0512056 0.844331 0.250283
83 1 0.0520484 0.891912 0.248871
87 1 0.018394 0.914917 0.248793
103 1 0.0839 0.77374 0.258101
105 1 0.0847047 0.821195 0.252834
107 1 0.118095 0.845372 0.251851
111 1 0.119096 0.8929 0.249098
115 1 0.0855893 0.916177 0.248537
119 1 0.153778 0.964499 0.247446
182 1 0.0193559 0.962572 0.249763
186 1 0.0529906 0.986938 0.250034
210 1 0.0866151 0.963814 0.248702
214 1 0.120266 0.98801 0.248267
244 1 0.183314 0.751105 0.269282
248 1 0.18509 0.84534 0.253916
252 1 0.1861 0.892966 0.250036
262 1 0.217089 0.773779 0.265159
263 1 0.218204 0.821187 0.257604
264 1 0.25216 0.843837 0.255097
266 1 0.252909 0.89176 0.251254
268 1 0.219833 0.916501 0.249167
275 1 0.284075 0.770226 0.262294
276 1 0.284803 0.818112 0.257119
277 1 0.318801 0.840557 0.254835
279 1 0.319293 0.889085 0.252256
281 1 0.286675 0.915139 0.250317
323 1 0.187408 0.988588 0.246739
340 1 0.220749 0.96445 0.247105
342 1 0.254322 0.988548 0.246465
354 1 0.287363 0.963503 0.24797
356 1 0.320924 0.987634 0.24786
287 1 0.350171 0.764098 0.257928
288 1 0.35083 0.813088 0.255789
289 1 0.384797 0.835988 0.255006
291 1 0.385337 0.88547 0.253719
293 1 0.353059 0.912551 0.25196
299 1 0.415551 0.757517 0.256117
300 1 0.416644 0.807864 0.255589
301 1 0.450472 0.831843 0.255357
303 1 0.451295 0.882113 0.255104
305 1 0.419035 0.909417 0.254069
311 1 0.481243 0.753539 0.254444
312 1 0.482704 0.804355 0.254872
317 1 0.484835 0.906777 0.255307
368 1 0.353617 0.961587 0.250106
370 1 0.387161 0.985891 0.250803
382 1 0.419645 0.959182 0.253062
384 1 0.453132 0.983812 0.25404
396 1 0.485608 0.956971 0.255229
14 1 0.582173 0.828986 0.251008
16 1 0.583503 0.879237 0.252223
26 1 0.61374 0.753202 0.246875
27 1 0.615395 0.803633 0.248058
28 1 0.648344 0.830482 0.246538
30 1 0.649786 0.880088 0.248148
32 1 0.616601 0.905192 0.251055
121 1 0.584892 0.980774 0.254451
138 1 0.617752 0.954887 0.252459
140 1 0.650935 0.980381 0.251616
245 1 0.547361 0.752064 0.251361
246 1 0.548979 0.802907 0.252322
254 1 0.550657 0.905303 0.25428
313 1 0.516241 0.829426 0.254238
315 1 0.517342 0.879924 0.254847
319 1 0.551621 0.95545 0.255022
398 1 0.518997 0.981975 0.255578
39 1 0.680418 0.756766 0.242256
40 1 0.6819 0.806247 0.243554
41 1 0.714897 0.833158 0.242712
43 1 0.716257 0.882011 0.244565
45 1 0.682813 0.906271 0.247203
53 1 0.74764 0.761206 0.2394
54 1 0.748696 0.809776 0.240764
55 1 0.781927 0.836044 0.241285
57 1 0.783046 0.88433 0.243134
59 1 0.749411 0.907972 0.244648
74 1 0.815387 0.765157 0.24001
76 1 0.81591 0.813213 0.241014
86 1 0.816398 0.909817 0.244424
152 1 0.684067 0.955313 0.249157
154 1 0.717264 0.980754 0.24897
166 1 0.750638 0.95644 0.246956
168 1 0.783964 0.981638 0.247878
181 1 0.817514 0.957901 0.246738
10 1 0.950478 0.770597 0.249017
12 1 0.950748 0.818253 0.247546
19 1 0.95108 0.913341 0.247979
78 1 0.849341 0.838654 0.242721
82 1 0.850176 0.886624 0.244178
102 1 0.883144 0.768301 0.243875
104 1 0.883381 0.816081 0.243887
106 1 0.91684 0.840917 0.245748
110 1 0.91752 0.888698 0.24647
114 1 0.883685 0.911618 0.246062
118 1 0.952016 0.961071 0.249499
185 1 0.851002 0.982783 0.248506
209 1 0.884677 0.959485 0.248051
213 1 0.918284 0.984094 0.249924
247 1 0.984153 0.842805 0.248517
251 1 0.984856 0.890464 0.248276
322 1 0.985652 0.985539 0.250727
