72
Atoms. Timestep: 45
1 14.6383 4.24863 3.20029
1 14.6288 1.41364 3.19989
1 0.0041985 0.00137751 3.19971
1 0.00501105 5.65717 3.20027
1 0.0370698 9.86208 3.19977
1 0.0622528 8.45128 3.19992
1 1.16155 3.50571 3.20083
1 1.17977 2.09297 3.20039
1 1.20895 11.9501 3.19951
1 1.26306 6.31919 3.20069
1 1.26652 10.5402 3.19947
1 1.2906 7.72851 3.20015
1 2.37031 1.32653 3.20072
1 2.39311 4.17694 3.20206
1 2.4257 12.6355 3.19977
1 2.48632 5.59283 3.20158
1 2.49662 9.81029 3.19924
1 2.54588 8.39306 3.1997
1 3.5419 3.38686 3.20351
1 3.58363 1.99956 3.20242
1 3.65051 11.9207 3.19952
1 3.71412 10.5132 3.19879
1 3.77809 6.24305 3.20163
1 3.80851 7.67684 3.19976
1 4.74744 4.01358 3.20498
1 4.80905 1.3048 3.20245
1 4.85615 12.6292 3.20045
1 4.93692 5.41451 3.20322
1 4.96985 9.84167 3.198
1 5.05423 8.40401 3.19804
1 5.96135 3.32431 3.20522
1 6.02962 1.9731 3.20375
1 6.11504 12.0164 3.19954
1 6.15932 10.6234 3.19773
1 6.36961 7.84395 3.19679
1 6.38447 5.44929 3.20227
1 7.07526 6.58091 3.19826
1 7.09011 4.18624 3.2036
1 7.30041 1.40674 3.20228
1 7.34469 0.0137931 3.20038
1 7.43011 10.0571 3.19632
1 7.49838 8.70588 3.19504
1 8.40549 3.62618 3.20221
1 8.48987 2.18852 3.20207
1 8.52281 6.61569 3.1972
1 8.60358 12.1099 3.19942
1 8.65068 10.7254 3.19749
1 8.71229 8.01662 3.19529
1 9.6512 4.35336 3.20046
1 9.68163 5.78714 3.19867
1 9.7456 1.51699 3.20113
1 9.80921 0.109517 3.2003
1 9.8761 10.0306 3.1975
1 9.91782 8.64333 3.19658
1 10.9138 3.63713 3.20034
1 10.9631 2.21991 3.20066
1 10.9734 6.43737 3.19858
1 11.034 12.1036 3.19996
1 11.0666 7.85325 3.198
1 11.0894 10.7037 3.19906
1 12.1691 4.30168 3.19986
1 12.1932 1.48995 3.20028
1 12.1967 5.711 3.19939
1 12.2508 0.0800507 3.20015
1 12.28 9.93723 3.19938
1 12.2982 8.52448 3.19908
1 13.3975 3.57892 3.19998
1 13.4226 2.16811 3.19998
1 13.4547 6.37301 3.19976
1 13.4555 12.0288 3.19991
1 13.5058 10.6166 3.19979
1 13.4964 7.78156 3.19966
