LAMMPS (6 Dec 2012)
Reading data file ...
  orthogonal box = (0 0 0) to (36.675 29.625 12.6)
  1 by 1 by 1 MPI processor grid
  408 atoms
WARNING: Resetting reneighboring criteria during minimization (min.cpp:173)
Setting up minimization ...
Memory usage per processor = 3.75526 Mbytes
Step Temp E_pair E_mol TotEng Press 
       0            0   -3144.1689            0   -3144.1689    -41199.27 
       1            0   -3146.6362            0   -3146.6362   -42662.348 
       2            0   -3147.7253            0   -3147.7253   -43791.806 
       3            0   -3147.9495            0   -3147.9495   -43360.707 
       4            0   -3148.2946            0   -3148.2946   -43326.636 
       5            0   -3148.5301            0   -3148.5301   -43347.861 
       6            0   -3148.6369            0   -3148.6369   -43699.901 
       7            0   -3148.7429            0   -3148.7429   -43469.489 
       8            0   -3148.9018            0   -3148.9018   -43433.826 
       9            0   -3148.9416            0   -3148.9416   -43552.817 
      10            0    -3148.963            0    -3148.963   -43529.154 
      11            0   -3149.0015            0   -3149.0015   -43454.161 
      12            0   -3149.0376            0   -3149.0376   -43435.501 
      13            0   -3149.0493            0   -3149.0493   -43528.822 
      14            0    -3149.067            0    -3149.067   -43578.964 
      15            0   -3149.0961            0   -3149.0961   -43460.314 
      16            0   -3149.2032            0   -3149.2032   -43449.677 
      17            0   -3149.2412            0   -3149.2412   -43591.566 
      18            0   -3149.2601            0   -3149.2601   -43522.619 
      19            0   -3149.2694            0   -3149.2694   -43443.404 
      20            0   -3149.2782            0   -3149.2782   -43571.835 
      21            0   -3149.2793            0   -3149.2793   -43589.378 
      22            0   -3149.2867            0   -3149.2867   -43487.958 
      23            0   -3149.2909            0   -3149.2909   -43464.757 
      24            0   -3149.2952            0   -3149.2952    -43539.95 
      25            0   -3149.3064            0   -3149.3064   -43471.767 
      26            0   -3149.3158            0   -3149.3158   -43416.501 
      27            0   -3149.3206            0   -3149.3206   -43472.015 
      28            0   -3149.3286            0   -3149.3286   -43392.505 
      29            0   -3149.3428            0   -3149.3428   -43488.306 
      30            0   -3149.3596            0   -3149.3596   -43406.086 
      31            0   -3149.3747            0   -3149.3747   -43311.977 
      32            0   -3149.3776            0   -3149.3776   -43323.199 
      33            0     -3149.38            0     -3149.38    -43344.59 
      34            0    -3149.381            0    -3149.381   -43340.558 
      35            0   -3149.3818            0   -3149.3818   -43311.641 
      36            0   -3149.3827            0   -3149.3827   -43309.264 
      37            0   -3149.3837            0   -3149.3837   -43327.502 
      38            0   -3149.3862            0   -3149.3862   -43330.074 
      39            0   -3149.3877            0   -3149.3877    -43318.36 
      40            0   -3149.3904            0   -3149.3904   -43295.586 
      41            0   -3149.3944            0   -3149.3944   -43273.314 
      42            0   -3149.3953            0   -3149.3953   -43307.046 
      43            0   -3149.3959            0   -3149.3959   -43312.961 
      44            0   -3149.3966            0   -3149.3966   -43285.805 
      45            0   -3149.3977            0   -3149.3977   -43275.035 
      46            0   -3149.3985            0   -3149.3985   -43278.583 
      47            0   -3149.3997            0   -3149.3997   -43282.515 
      48            0   -3149.4014            0   -3149.4014    -43279.75 
      49            0   -3149.4035            0   -3149.4035   -43269.633 
      50            0    -3149.406            0    -3149.406   -43245.346 
      51            0   -3149.4099            0   -3149.4099   -43255.384 
      52            0   -3149.4147            0   -3149.4147    -43215.25 
Loop time of 1.6017 on 1 procs for 52 steps with 408 atoms

Minimization stats:
  Stopping criterion = max force evaluations
  Energy initial, next-to-last, final = 
        -3144.16886919     -3149.40986955     -3149.41467338
  Force two-norm initial, final = 15.7077 0.520609
  Force max component initial, final = 3.58045 0.261665
  Final line search alpha, max atom move = 0.00509612 0.00133348
  Iterations, force evaluations = 52 301

Pair  time (%) = 1.59272 (99.4395)
Neigh time (%) = 0 (0)
Comm  time (%) = 0.00569224 (0.355388)
Outpt time (%) = 0.000365973 (0.022849)
Other time (%) = 0.00291872 (0.182226)

Nlocal:    408 ave 408 max 408 min
Histogram: 1 0 0 0 0 0 0 0 0 0
Nghost:    3354 ave 3354 max 3354 min
Histogram: 1 0 0 0 0 0 0 0 0 0
Neighs:    0 ave 0 max 0 min
Histogram: 1 0 0 0 0 0 0 0 0 0
FullNghs:  70744 ave 70744 max 70744 min
Histogram: 1 0 0 0 0 0 0 0 0 0

Total # of neighbors = 70744
Ave neighs/atom = 173.392
Neighbor list builds = 0
Dangerous builds = 0
WARNING: Resetting reneighboring criteria during minimization (min.cpp:173)
Setting up minimization ...
Memory usage per processor = 3.75526 Mbytes
Step Temp E_pair E_mol TotEng Press 
      52            0   -3149.4147            0   -3149.4147    -43215.25 
      53            0   -3149.4152            0   -3149.4152   -43234.797 
Loop time of 0.0486012 on 1 procs for 1 steps with 408 atoms

Minimization stats:
  Stopping criterion = max force evaluations
  Energy initial, next-to-last, final = 
        -3149.41467338     -3149.41467338     -3149.41517457
  Force two-norm initial, final = 0.520609 0.302625
  Force max component initial, final = 0.261665 0.0837149
  Final line search alpha, max atom move = 0.00298569 0.000249947
  Iterations, force evaluations = 1 8

Pair  time (%) = 0.0476785 (98.1015)
Neigh time (%) = 0 (0)
Comm  time (%) = 0.000166416 (0.342412)
Outpt time (%) = 0 (0)
Other time (%) = 0.000756264 (1.55606)

Nlocal:    408 ave 408 max 408 min
Histogram: 1 0 0 0 0 0 0 0 0 0
Nghost:    3354 ave 3354 max 3354 min
Histogram: 1 0 0 0 0 0 0 0 0 0
Neighs:    0 ave 0 max 0 min
Histogram: 1 0 0 0 0 0 0 0 0 0
FullNghs:  70634 ave 70634 max 70634 min
Histogram: 1 0 0 0 0 0 0 0 0 0

Total # of neighbors = 70634
Ave neighs/atom = 173.123
Neighbor list builds = 0
Dangerous builds = 0
