408
Atoms. Timestep: 53
1 35.0048 15.7721 3.36188
1 5.54859 15.9003 3.77278
1 21.0607 16.8727 3.1152
1 34.9238 18.6077 3.26565
1 5.44829 18.7389 3.69265
1 34.8913 20.0156 3.21573
1 5.47215 20.1377 3.57024
1 21.2156 19.9877 3.123
1 21.2929 21.5109 3.13311
1 34.8588 22.8289 3.13762
1 5.51242 22.9488 3.30768
1 34.8687 24.2408 3.11908
1 5.55274 24.35 3.21854
1 21.3512 24.5587 3.1627
1 21.4824 0.905658 3.21505
1 21.4 26.0474 3.17801
1 5.68241 1.78446 3.1336
1 34.9524 1.66556 3.20485
1 34.8809 27.0577 3.12453
1 5.60196 27.1594 3.1303
1 23.6229 16.8624 3.04512
1 22.3522 17.6601 3.08376
1 22.4622 19.2294 3.08768
1 23.6871 20.0852 3.06169
1 23.7461 21.5879 3.0725
1 22.5089 22.3136 3.11063
1 22.5696 23.8076 3.12554
1 23.778 24.603 3.10638
1 23.909 0.876712 3.18773
1 23.8309 26.0726 3.12666
1 22.706 1.64459 3.20749
1 22.6138 26.8163 3.16329
1 26.4812 15.977 2.85951
1 26.2976 17.3767 2.93166
1 24.9614 17.9098 3.00272
1 24.9557 19.4082 3.02361
1 26.1748 20.2826 3.00578
1 26.2044 21.7374 3.0215
1 24.9543 22.4192 3.05243
1 25.0087 23.8851 3.06878
1 26.2188 24.6823 3.05817
1 26.3455 0.869693 3.16268
1 26.2687 26.1296 3.08152
1 25.1324 1.61294 3.18295
1 25.0422 26.8483 3.11475
1 27.8596 15.5972 2.77159
1 29.0005 16.3418 2.8339
1 28.8479 17.7154 2.91098
1 27.5151 18.2424 2.93527
1 27.4614 19.669 2.97598
1 28.6844 20.4702 2.99072
1 28.6802 21.896 3.00658
1 27.4197 22.5507 3.01644
1 27.4584 23.9896 3.03363
1 28.6772 24.7678 3.0402
1 28.793 0.882666 3.15506
1 28.7182 26.1983 3.06349
1 27.5702 1.60214 3.17021
1 27.4847 26.8987 3.08256
1 30.2249 15.6714 2.89044
1 0.734045 15.8113 3.54173
1 31.3943 16.4163 3.00902
1 1.92489 16.5477 3.59158
1 31.2999 17.818 3.02482
1 1.87675 17.9553 3.5265
1 30.04 18.465 2.97607
1 0.663758 18.6508 3.41568
1 29.9718 19.8652 3.00187
1 0.647716 20.058 3.33622
1 31.1863 20.608 3.04279
1 1.85043 20.7895 3.34673
1 31.1668 22.0204 3.04342
1 1.86418 22.1957 3.26108
1 29.9043 22.6678 3.02412
1 0.636744 22.8807 3.19755
1 29.9235 24.0914 3.03678
1 0.654909 24.2898 3.15629
1 31.1496 24.8451 3.05829
1 1.87797 25.0133 3.15356
1 1.9829 1.02542 3.17509
1 31.2509 0.908912 3.16486
1 31.1802 26.2662 3.07664
1 1.90887 26.4229 3.13577
1 0.747495 1.70713 3.20187
1 30.0215 1.61037 3.17542
1 29.9414 26.9533 3.07974
1 0.674598 27.1044 3.1348
1 32.6094 15.7278 3.13197
1 3.14175 15.8514 3.67558
1 33.7915 16.4673 3.23461
1 4.32847 16.5907 3.72092
1 33.7275 17.8739 3.20117
1 4.27064 17.9969 3.66769
1 32.4954 18.5539 3.10537
1 3.06526 18.6927 3.55353
1 32.4441 19.9598 3.09353
1 3.06604 20.0977 3.45207
1 33.6542 20.6897 3.13865
1 4.26497 20.8306 3.44952
1 33.6397 22.0998 3.1137
1 4.29615 22.2314 3.33177
1 32.3893 22.7609 3.07283
1 3.07703 22.9221 3.25207
1 32.398 24.1764 3.07297
1 3.10654 24.3279 3.18571
1 33.6251 24.9122 3.09643
1 4.33113 25.0441 3.17333
1 4.45041 1.05974 3.14303
1 33.7175 0.943481 3.18111
1 33.65 26.3277 3.10553
1 4.36786 26.4522 3.13864
1 3.21717 1.74858 3.17549
1 32.4839 1.63203 3.1914
1 32.4091 27.0067 3.10038
1 3.13899 27.1418 3.13156
1 5.72261 3.20411 3.1593
1 34.992 3.07755 3.24685
1 34.9152 28.4717 3.14368
1 5.63981 28.5733 3.11782
1 21.5407 3.89982 3.21875
1 21.4509 29.0554 3.20608
1 21.5636 5.37398 3.21277
1 5.75302 6.05351 3.25122
1 35.0267 5.88994 3.34703
1 5.78415 7.47364 3.31535
1 35.0577 7.29852 3.39596
1 21.6524 8.38178 3.18585
1 21.6937 9.87309 3.16695
1 5.7691 10.2971 3.47645
1 35.0695 10.1173 3.45299
1 5.75159 11.7077 3.56493
1 35.0824 11.5259 3.45272
1 21.8876 12.9382 3.12433
1 22.0533 14.4921 3.10507
1 5.64165 14.4975 3.72575
1 35.0533 14.3639 3.4029
1 22.7325 3.10897 3.2127
1 22.6561 28.2885 3.18098
1 23.9627 3.82905 3.20545
1 23.873 29.0438 3.17036
1 23.9837 5.28131 3.20312
1 22.7997 6.08332 3.20351
1 22.8205 7.54884 3.1894
1 24.0664 8.22701 3.17199
1 24.092 9.67807 3.14232
1 22.9504 10.5511 3.14193
1 23.0198 12.0493 3.11136
1 24.2973 12.6766 3.05193
1 24.4371 14.194 3.00698
1 23.3689 15.1781 3.05684
1 25.1623 3.05798 3.19618
1 25.0882 28.3012 3.13937
1 26.3932 3.77253 3.19838
1 26.3057 29.0548 3.13702
1 26.4187 5.20459 3.20276
1 25.2223 5.97598 3.19636
1 25.2411 7.41329 3.17975
1 26.4885 8.07747 3.16604
1 26.517 9.49622 3.11562
1 25.3469 10.3104 3.09976
1 25.3923 11.7339 3.03249
1 26.659 12.2827 2.92847
1 26.7291 13.6485 2.83003
1 25.745 14.6847 2.89376
1 27.6054 3.03149 3.19344
1 27.5297 28.3345 3.11165
1 28.8372 3.74427 3.21119
1 28.7519 29.081 3.12326
1 28.8712 5.164 3.2282
1 27.6576 5.89597 3.21127
1 27.6858 7.3157 3.19624
1 28.9321 7.9854 3.20682
1 28.9748 9.39145 3.15182
1 27.7758 10.1242 3.0774
1 27.8308 11.518 2.96651
1 29.0774 12.1529 2.93625
1 29.1428 13.5315 2.82593
1 27.9781 14.2225 2.75186
1 0.786684 3.11941 3.2432
1 30.0602 3.03001 3.20859
1 29.9823 28.3778 3.10889
1 0.709876 28.5162 3.14701
1 2.0199 3.84529 3.25525
1 31.2945 3.74201 3.23806
1 31.2105 29.115 3.13118
1 1.94343 29.238 3.15043
1 2.05466 5.25837 3.31006
1 31.3326 5.155 3.27162
1 0.816017 5.93466 3.35234
1 30.109 5.859 3.25666
1 0.842005 7.34535 3.41458
1 30.1463 7.26993 3.25842
1 2.06678 8.07407 3.44074
1 31.3824 7.96126 3.2967
1 2.0769 9.48509 3.50721
1 31.4235 9.36433 3.2706
1 0.837792 10.1602 3.52601
1 30.2149 10.062 3.16884
1 0.835396 11.5699 3.5627
1 30.2682 11.4545 3.07454
1 2.04219 12.2998 3.60996
1 31.4679 12.1794 3.13015
1 2.0086 13.7092 3.63271
1 31.4941 13.5802 3.05734
1 0.785219 14.4022 3.57299
1 30.3041 14.2727 2.89949
1 3.25652 3.16353 3.21226
1 32.5239 3.04624 3.2311
1 32.4455 28.4247 3.12544
1 3.17661 28.553 3.13365
1 4.4883 3.8943 3.20882
1 33.7586 3.76191 3.26301
1 33.6781 29.1538 3.14904
1 4.41076 29.2698 3.12816
1 4.52491 5.31192 3.25881
1 33.7964 5.17191 3.30977
1 3.28475 5.98951 3.31959
1 32.5673 5.86003 3.3107
1 3.31023 7.40364 3.38699
1 32.604 7.26748 3.33812
1 4.53686 8.14113 3.39343
1 33.8285 7.98321 3.38469
1 4.54646 9.55529 3.47196
1 33.8577 9.39033 3.39685
1 3.29599 10.2156 3.53317
1 32.6391 10.0817 3.32162
1 3.28189 11.6251 3.59999
1 32.6711 11.4855 3.27544
1 4.49329 12.3556 3.62771
1 33.8672 12.2189 3.35335
1 4.44267 13.7615 3.6898
1 33.8679 13.6261 3.31341
1 3.2067 14.4432 3.67981
1 32.6664 14.3222 3.16619
1 36.1942 16.5085 3.43383
1 6.72418 16.6455 3.81822
1 36.144 17.9164 3.37527
1 6.64406 18.0455 3.79591
1 19.8364 17.6795 3.14147
1 19.9666 19.2062 3.14604
1 36.0982 20.7449 3.24541
1 6.67312 20.8624 3.53882
1 36.0965 22.1537 3.19052
1 6.72303 22.2515 3.39295
1 20.0745 22.2799 3.16715
1 20.1338 23.7861 3.17926
1 36.0938 24.9681 3.13132
1 6.78817 25.0432 3.19935
1 6.91138 1.08229 3.10834
1 36.1879 0.983895 3.1884
1 36.1196 26.38 3.12828
1 6.82523 26.4541 3.15046
1 20.2863 1.69034 3.22291
1 20.1954 26.8196 3.20393
1 7.94984 15.9731 3.79383
1 9.09265 16.7182 3.78175
1 8.9749 18.0938 3.79409
1 7.80883 18.7874 3.78135
1 7.86859 20.1631 3.63481
1 9.11155 20.7976 3.52513
1 9.16183 22.1899 3.3887
1 7.96173 22.9232 3.341
1 8.00264 24.3277 3.24581
1 9.24797 24.9987 3.21422
1 9.36184 1.09067 3.09045
1 9.27542 26.4184 3.1658
1 8.13929 1.81107 3.09647
1 8.06239 27.1513 3.1395
1 10.4631 16.3392 3.60517
1 11.1966 17.6302 3.5293
1 10.2165 18.6667 3.6334
1 10.2824 20.0315 3.51841
1 11.5448 20.5797 3.36891
1 11.5884 22.0035 3.30087
1 10.4185 22.818 3.30491
1 10.4452 24.2366 3.23969
1 11.692 24.9015 3.21093
1 11.7992 1.07918 3.1021
1 11.7101 26.3392 3.17842
1 10.5863 1.8235 3.08536
1 10.5138 27.111 3.154
1 13.5659 17.1374 3.29514
1 12.4993 18.1205 3.37005
1 12.6388 19.6371 3.32749
1 13.9156 20.2644 3.26292
1 13.984 21.7631 3.24474
1 12.8425 22.6364 3.24989
1 12.8667 24.0877 3.22295
1 14.1124 24.7661 3.21307
1 14.2252 1.04674 3.14251
1 14.1322 26.2321 3.19686
1 13.0226 1.81533 3.11049
1 12.9484 27.0343 3.1747
1 16.0595 16.982 3.20769
1 14.8812 17.8226 3.24154
1 15.0473 19.3757 3.23749
1 16.3144 20.0811 3.21515
1 16.4043 21.5983 3.21712
1 15.2404 22.4415 3.22707
1 15.2804 23.933 3.22042
1 16.5211 24.6433 3.21749
1 16.6445 1.00042 3.19178
1 16.5512 26.1326 3.21431
1 15.4488 1.78542 3.16109
1 15.3681 26.9415 3.20127
1 18.5521 16.9192 3.16184
1 17.3439 17.7298 3.18692
1 17.4957 19.2545 3.19224
1 18.7531 20.0012 3.17511
1 18.8425 21.5183 3.18389
1 17.6496 22.3236 3.20599
1 17.7032 23.829 3.21138
1 18.9331 24.5718 3.2034
1 19.0622 0.950036 3.22062
1 18.9735 26.0678 3.21107
1 17.8685 1.74054 3.20738
1 17.7813 26.8633 3.21687
1 20.3124 3.17005 3.2218
1 20.2307 28.3052 3.21328
1 6.94985 3.94275 3.14567
1 36.2256 3.7993 3.27225
1 36.1488 29.1966 3.15916
1 6.87318 29.2869 3.10891
1 6.99061 5.36736 3.18369
1 36.2612 5.20989 3.32584
1 20.3804 6.18264 3.20738
1 20.4115 7.67148 3.19526
1 7.0094 8.22891 3.30461
1 36.2803 8.02272 3.43691
1 7.02979 9.6514 3.38319
1 36.2982 9.43203 3.4813
1 20.5294 10.7159 3.1646
1 20.6201 12.233 3.14908
1 6.96741 12.4512 3.57003
1 36.2836 12.2579 3.51882
1 6.90251 13.8497 3.67052
1 36.2663 13.6674 3.50877
1 20.8745 15.3327 3.12302
1 8.17977 3.23897 3.10592
1 8.09599 28.5718 3.11353
1 9.40156 3.98612 3.09392
1 9.32727 29.2857 3.10545
1 9.44594 5.42258 3.11512
1 8.21306 6.12301 3.16797
1 8.25404 7.55342 3.21956
1 9.47226 8.3322 3.2035
1 9.51153 9.77091 3.26723
1 8.25359 10.4242 3.36961
1 8.25234 11.8481 3.46205
1 9.47562 12.6501 3.44204
1 9.42614 14.0746 3.54898
1 8.09739 14.5998 3.6821
1 10.6253 3.26452 3.08017
1 10.5391 28.5438 3.12442
1 11.843 4.01792 3.0821
1 11.7699 29.2587 3.12303
1 11.8884 5.47153 3.0879
1 10.6617 6.19142 3.10686
1 10.711 7.6392 3.13972
1 11.9216 8.43562 3.13571
1 11.9757 9.90192 3.17608
1 10.727 10.5843 3.24835
1 10.7587 12.0383 3.31848
1 11.9774 12.9114 3.28837
1 11.9736 14.4084 3.35429
1 10.6424 14.9404 3.50453
1 13.058 3.27397 3.09832
1 12.9689 28.487 3.15134
1 14.2754 4.0286 3.11676
1 14.1991 29.207 3.16012
1 14.3173 5.50116 3.11311
1 13.1002 6.24623 3.09818
1 13.1525 7.71636 3.11302
1 14.3618 8.51026 3.12719
1 14.4222 10.0043 3.14582
1 13.185 10.7316 3.17218
1 13.245 12.2344 3.21214
1 14.4708 13.0876 3.20115
1 14.5811 14.6551 3.22777
1 13.3117 15.4527 3.294
1 15.48 3.26077 3.14964
1 15.3905 28.4158 3.18858
1 16.7004 4.01048 3.17284
1 16.6186 29.1454 3.2009
1 16.736 5.49624 3.16536
1 15.5317 6.2691 3.13653
1 15.5803 7.75787 3.1377
1 16.7984 8.52942 3.15673
1 16.858 10.0355 3.15762
1 15.6395 10.8055 3.15532
1 15.7172 12.3287 3.17117
1 16.9668 13.1092 3.16763
1 17.0967 14.6361 3.1746
1 15.8725 15.4427 3.20226
1 17.8965 3.22442 3.20061
1 17.8097 28.3503 3.21589
1 19.1212 3.96505 3.21264
1 19.0342 29.091 3.22028
1 19.1501 5.45201 3.20485
1 17.9581 6.24759 3.18434
1 17.9991 7.74332 3.17664
1 19.2294 8.48571 3.18368
1 19.2838 9.99086 3.17255
1 18.0907 10.7965 3.16393
1 18.1806 12.3138 3.1608
1 19.4386 13.06 3.15216
1 19.5899 14.5852 3.14485
1 18.3815 15.3964 3.16006
